# vtk DataFile Version 3.0
d-2__ created by libgimli-v1.2.3-38-gcdaaaf1e
ASCII
DATASET UNSTRUCTURED_GRID
POINTS 629 double
44.984368413593	-0.66363266262	0
45.34	0	0
44.66	0	0
-7.793467725706	-6.273771822296	0
-9.775353642579	-3.389119945881	0
-11.765842306972	-7.171902646661	0
17.32	0	0
16	0	0
16.845324207507	-1.21087847819	0
-13.671710733217	-3.482004268274	0
-12	0	0
2.593186805496	-2.44481157195	0
1.519367205768	-4.759659222733	0
4.147010036024	-3.983477562717	0
33.32	0	0
33.745253844341	-0.840910621231	0
34.28	0	0
-4	0	0
-2.106216491962	-2.016123239935	0
0	0	0
17.794613498138	-0.811839177048	0
18.28	0	0
59.913202543228	-2.725704839067	0
58.310657703197	-1.786950994361	0
57.767809312623	-3.314643244079	0
15.049199914783	-5.33772590814	0
17.542371018035	-5.08128968775	0
16.573463187445	-3.06782661068	0
0.526471830505	-2.13357003577	0
1.32	0	0
57.72	0	0
57.56122182239	-0.889935552962	0
58.311972172036	-0.75625331778	0
73.72	0	0
73.440325467064	-0.939126950455	0
74.209374196226	-0.831309356056	0
14.494470372177	-2.921156533902	0
12.794315043828	-3.89913764632	0
2.68	0	0
2.045376147417	-1.123282114736	0
18.570257239342	-0.916132320461	0
17.962568359913	-1.913262062031	0
13.952491480749	-1.329640719363	0
12.62732551273	-1.215444098925	0
13.171371072272	-2.356719984668	0
79.341612363717	-0.993639091354	0
78.68	0	0
78.166797794856	-1.322587391913	0
6.588016803359	-5.224762925846	0
6.15404921873	-2.250746017639	0
32	0	0
32.789603418353	-1.249714127895	0
67.482369425668	-0.874018696068	0
68	0	0
66.68	0	0
30.331995222004	-2.900312858787	0
28.655761614314	-4.577681817933	0
30.928153463388	-5.018810844903	0
49.89655181244	-1.4965032906	0
49.32	0	0
48.108531992651	-0.863678810817	0
15.42428635784	-1.429146692945	0
7.880279659369	-1.467337993008	0
8.906066794193	-0.945929575558	0
8	0	0
46	0	0
45.826404157624	-0.984238049635	0
6.68	0	0
74.042173595545	-1.961576508751	0
20	0	0
20.507030072562	-1.24783874806	0
21.32	0	0
14.68	0	0
13.32	0	0
33.843303409007	-1.995039592617	0
34.499871344238	-0.964609657707	0
18.68	0	0
19.411187587683	-0.820999003101	0
38.136173411357	-1.497657047156	0
37.32	0	0
36.516025541851	-1.584487213178	0
24	0	0
23.56	0	0
23.566751732643	-0.730703233422	0
29.32	0	0
30.04674287982	-1.24362116773	0
30.68	0	0
59.287802949207	-1.070390259697	0
22.68	0	0
24.567469805984	-0.77786538698	0
22.322385601475	-1.622473736955	0
52	0	0
52.51646553594	-1.18867271651	0
53.32	0	0
70.68	0	0
69.32	0	0
69.651798177361	-1.266883146981	0
25.32	0	0
25.680197644398	-1.181412145965	0
26.68	0	0
72.579635610259	-0.874742639627	0
72	0	0
71.368459884875	-1.463337555763	0
74.68	0	0
75.161453221291	-1.255240282854	0
76	0	0
27.01997993923	-1.231433678034	0
28	0	0
43.594037127731	-0.97700706263	0
44	0	0
42.68	0	0
72.75231381287	-1.966170467711	0
58.68	0	0
60	0	0
44.734630604372	-1.65460665912	0
46.278653462555	-2.567768147942	0
34.68	0	0
46.990510534253	-1.362808565625	0
46.5154040446	-0.587175403683	0
36	0	0
35.357817696124	-0.917552866325	0
46.66	0	0
47.120015282118	-0.56616989935	0
47.34	0	0
54.68	0	0
53.921880947416	-1.377833276699	0
55.567599893609	-1.465004021768	0
19.303812107747	-1.922672557564	0
44.388540294023	-0.662459977771	0
31.383569316567	-1.438326452751	0
56.692281248428	-0.855793288357	0
57.016175914932	-1.880457452218	0
68.479590124633	-0.743404631298	0
35.110695434995	-2.04731720582	0
41.32	0	0
42.335914050469	-1.338955805628	0
77.32	0	0
76.625782366357	-1.48466969853	0
73.268772537895	-3.522345871735	0
71.795042555854	-3.02091286777	0
71.476972027726	-5.036499413543	0
48	0	0
40	0	0
40.913891798769	-1.447566663082	0
57.32	0	0
56	0	0
48.12918356331	-2.561253857385	0
60.504344282342	-1.095933756246	0
61.32	0	0
38.68	0	0
64.684410926487	-1.341412059966	0
65.32	0	0
64	0	0
73.32	0	0
68.44	0	0
24.265464775322	-1.957830937047	0
66.272398326493	-1.307321682851	0
39.094923585028	-2.5921108127	0
40.284607643145	-2.574936081099	0
39.510935365533	-1.352480486411	0
67.962310755806	-2.291246106914	0
65.477905444648	-3.284600461907	0
68.244892607689	-5.408874454132	0
63.396901118826	-1.069986795227	0
43.475673795456	-2.17972730555	0
50.68	0	0
89.884095551347	-3.322599462169	0
91.185969556474	-4.717069528327	0
91.648391417545	-2.515851099991	0
74.111728631377	-5.871650215921	0
75.419797930989	-3.242374964811	0
90.315972172283	-2.006769899693	0
34.481522335237	-3.646825086006	0
54.473613449733	-3.13573498529	0
82.68	0	0
83.328974004356	-1.048698958857	0
84	0	0
88	0	0
86.68	0	0
87.47212690477	-1.474680856233	0
56.196300097191	-2.89685966557	0
81.32	0	0
82.067333508883	-1.517257487824	0
35.990316123521	-3.178413614064	0
37.747563432071	-3.458462364143	0
70.087166361675	-3.08801312749	0
92.301642657892	-1.045355670656	0
91.137000688847	-1.09813107831	0
93.396846789597	-1.609326835663	0
93.32	0	0
95.137797958825	-2.315332228496	0
97.992141153722	-3.137981180159	0
96	0	0
108	0	0
110.31812326245	-4.893685849031	0
112	0	0
94.68	0	0
90.68	0	0
89.869859849259	-1.013925695227	0
86.014288531501	-1.125004426321	0
85.32	0	0
84.601581531875	-1.495059618909	0
18.687616363226	-3.500744684342	0
44.656683639813	-3.497863191076	0
61.994905936596	-1.652824624065	0
62.68	0	0
-1.673883431418	-4.575236300992	0
11.342932728981	-3.371860978765	0
10.674671977067	-2.306636104894	0
10.0533397183	-3.618637417117	0
32.452344113316	-3.221413838916	0
62.505621269661	-4.252394569068	0
65.013786739797	-5.955150554406	0
11.210765447199	-4.571769331908	0
9.55931919141	-5.763604665849	0
12.306376630753	-6.179445442403	0
28.515591152646	-1.869873114785	0
89.32	0	0
88.739348061679	-0.915939361413	0
93.283107543855	-3.777971234429	0
42.091413067884	-3.405793744998	0
20.683878872032	-3.079770349879	0
51.3286336032	-1.001414305109	0
52.98511536519	-2.390690663835	0
26.217367662341	-3.087414290592	0
63.615128566707	-2.328782077193	0
50.1727105284	-3.688413192483	0
51.558448628292	-2.288009014889	0
5.32	0	0
4	0	0
4.21967666213	-1.621028656657	0
10.03418849664	-1.102077623964	0
9.297343820429	-2.155779601631	0
11.333613590353	-1.174596217534	0
11.989020538165	-2.40397081651	0
95.459024870979	-5.372996446839	0
79.374068323122	-2.342971759513	0
77.704542646282	-3.07219358087	0
59.000315431335	-5.828966261111	0
62.482232381349	-7.877941282568	0
90.159449743453	-7.489963318001	0
92.853190104115	-6.125385132587	0
3.107300225169	-1.038222656069	0
89.023927047916	-2.058358653387	0
87.844416849151	-3.553124232851	0
36.119053397708	-5.151512949807	0
38.621125826743	-6.119279860305	0
52.469380601606	-3.883982066446	0
54.031243788273	-5.125604990694	0
80.915188724524	-2.851388001977	0
79.642220220473	-4.501499981986	0
89.275314589141	-5.029659840587	0
12	0	0
3.831553192316	-7.540240632824	0
10.68	0	0
8.254019678238	-3.418940822798	0
9.32	0	0
92	0	0
80.493584255292	-1.296179732599	0
80	0	0
39.84961276233	-4.06858227523	0
47.38135858429	-5.291148528165	0
26.132913652246	-6.426744734808	0
22.872709212837	-8.017756984377	0
25.987801278473	-10.363504672818	0
-0.281936540192	-7.836183201782	0
82.461441116483	-3.169039371343	0
84.372315465169	-6.069891733519	0
82.417168595785	-8.657738033157	0
86.267390093761	-9.32828601783	0
77.058160123906	-5.476672779155	0
56.15466900944	-4.627291856173	0
17.342397144458	-7.57804531511	0
-4.286307307184	-7.297167187257	0
23.22268423237	-4.295071570614	0
41.319064211021	-6.235168332316	0
44.031374837967	-5.831634177033	0
86.009542117117	-2.606233648688	0
81.502981173779	-4.216569645918	0
81.67818963322	-5.939613496724	0
82.838065900533	-4.592864284397	0
84.214620676743	-3.509327566192	0
85.94191514165	-4.367419853229	0
7.586685679765	-8.373978198972	0
87.304667608203	-5.994579524311	0
33.409091593871	-6.269876197969	0
55.446772018024	-7.327517468779	0
83.328931806435	-2.161339363122	0
79.387650563846	-7.459500753945	0
36.508140992287	-8.204300300862	0
10.936684449421	-8.767175567187	0
45.604886792656	-8.1533423791	0
43.189692826649	-8.351095690375	0
44.811255215055	-11.914506443028	0
104	0	0
100	0	0
102.04262040016	-3.533103382005	0
76.10776967372	-8.675071045408	0
51.613837704585	-6.555231064911	0
71.337588432846	-9.249945729063	0
67.504342445919	-12.953567859492	0
71.643475498044	-14.558767639106	0
20.041443527066	-5.820573489296	0
29.781059137145	-8.095193696677	0
21.90335935074	-12.068871341033	0
25.439968665625	-14.006494175741	0
17.212058366034	-11.475195048513	0
19.877373447584	-8.999449550369	0
14.281747176494	-8.565632022532	0
-14.914709462653	-6.149114026716	0
-2.784130772355	-11.540206694567	0
1.751011000019	-11.239430280519	0
5.55819732472	-11.238170544843	0
-5.381701086084	-3.369756412323	0
94.174106135191	-9.264777962941	0
33.594419919814	-10.486748405741	0
29.718290424552	-13.456202287071	0
35.033756957287	-15.222865466454	0
53.170107741659	-11.155478413861	0
48.633677132181	-9.334326470398	0
49.228128114731	-12.91287771136	0
9.066440516703	-11.603837820871	0
40.22669432435	-9.566640127006	0
-8	0	0
12.81490054306	-11.936925330155	0
105.88669378563	-3.146030825822	0
0.254503340365	-14.702546950571	0
7.141273916691	-14.152038689788	0
31.283365049799	-18.383024897732	0
58.694734059056	-10.549831303981	0
1.070310590999	-31.088574704847	0
-0.548432055363	-28.131289690389	0
-2.227889585032	-31.518721965382	0
99.299911924128	-7.615370752703	0
63.31695812239	-11.725978483193	0
66.321266477754	-8.870979150082	0
105.06221756479	-7.30733847857	0
90.045898376948	-11.923406319647	0
75.263687348517	-12.53574872533	0
37.092573070573	-11.59429989167	0
30.574113027202	-25.406781661328	0
32.284584278107	-22.172787363263	0
28.478813405618	-21.723551931189	0
19.019733147333	-18.849197705951	0
23.481106192245	-21.363941577229	0
22.656027975012	-16.482787541508	0
-5.316813446416	-28.012526908875	0
10.233831407456	-22.880710235273	0
14.899211812584	-20.835519881798	0
11.451775732587	-18.601326143013	0
14.998244238464	-15.983711776959	0
10.371051133007	-15.095143261028	0
91.178612338593	-15.99790914086	0
93.61386193894	-13.25080631896	0
79.515162758751	-11.396700697329	0
83.327299644359	-11.687719360383	0
82.189497910458	-15.608951431568	0
[...]
CELL_DATA 1114
SCALARS Coverage double 1
LOOKUP_TABLE default
1.667504176156 0 0 0 0 0 15.064742388877 0 0 7.6854675803991 4.6163480995132 0 0 4.5954530211858 1.36 0 0 0 4.2427751864006 0.73913107087564 0.5079001113801 1.1003906540366 0 2.1975309769947 2.2083208389617 3.2017704918847 1.0517650380666 0 0.67345768902771 0 0 0 0 0 0 1.0908139301702 0.42474441623793 4.4700647506547 4.7510088594601 0 0.50515824748078 0 0 4.4876717276866 0 0 3.5331843812513 0 0 1.2960244892706 0 0 0 5.2530108558303 0 0 0 1.32 0 0 0 0 17.698057261022 0 0.70543143811893 0 5.3766750849371 1.996432085612 0 1.3642073609713 0.76348389511279 1.2125994308775 3.1696470734837 6.2650908649036 0 1.0643714861623 1.32 3.0104498300343 0.4012838431711 0 0 0 3.1214157096383 1.36 0 0 2.0405288491871 3.3830691217194 0.14895731839659 4.0856659995741 1.32 0 0.59804553419982 1.32 2.0853650735639 0 1.6119553059268 0 2.1353482128447 1.1420532952405 0 4.9780703030224 0 0 6.801907161483 2.6706329355912 3.2194647913713 0 5.6775270918929 0 0 0 0 2.6656770629847 0 4.1700228670528 1.5059231822762 0.80709642814359 0 0 0.88467911328391 3.3539558620516 0 2.7916402223404 0 1.3075737636456 13.992018108499 6.4033193807997 4.4642093552902 0 1.6189842922337 0 0 0.89936277921707 0.79690020063973 0 1.309152615281 0 0 1.36 0.99466152738306 3.3738986692542 1.6111634565669 2.4959579077279 5.7334012775587 1.2277756976446 0 1.7347140883031 0.44474590385381 0 0 1.1986504929435 0 0 2.3494681681005 1.5686407285732 0 1.7695009893375 1.8724475591632 5.6706721067892 1.0838442168804 0 1.1953479013295 55.120468991245 0 2.9653039693424 2.04 0 0 0 0 1.4741648935031 0.41171114009419 0 3.4318864672315 0 1.9313952564296 9.6857454346658 0 1.0654635504569 4.2702805102666 2.6899798777957 7.3052097772055 0 4.8255490998547 0 0 2.0989556250168 1.3552900029813 2.6573106373949 1.0183008149596 3.2963480995132 5.3690212018246 0 5.4060587875248 0.37891399817233 3.2497900537317 1.2906563131474 1.9144318042632 0 1.2117227893632 0 5.7943210471177 0 1.2699356101362 0.9382002702486 2.417060910409 1.4261639466369 0.58385646688803 0.84705502077484 3.5351367412661 0 3.4915826048675 2.5832029429643 2.172394551493 5.1116154870193 0.49506286239126 3.8510526783094 0 5.0755432467965 0.61412539485708 2.3908817984599 2.3009448935848 0 1.4381890288863 0.40561824700003 2.4537688193007 0 1.2227710353525 1.0348553823427 0 0 0.78903409812209 19.9237703141 0 5.5473887460924 0 4.4352042246676 1.6396376132377 3.3738986692542 0.9874858894668 0.87901239079819 10.51213544065 0 0.87932311159744 0.52208295612397 2.0220906263574 4.5604916589575 3.4422488109939 2.3232208950643 0 0 1.134750291241 1.0148587230727 4.2803691619329 6.9551696233402 1.32 0 4.1001738955086 3.4199140789454 0.54378014440922 1.6440163776077 3.5386581939132 0 0 2.0989556250168 3.2347479550356 6.5305892315554 0 0 0.65492716318191 1.1011090572246 4.1033614158153 1.32 9.855817218563 1.1004473199175 5.9929124358671 0 1.8640029345584 1.6115531649888 3.719807196119 1.1980440608644 0.61423524844747 1.3504618177525 0.57534902097775 8.5450348828658 2.2397301481769 4.7116093538409 1.6396376132377 4.2346657263876 0 3.4145319780266 0 0.8829978532932 2.667723910924 4.299549063042 0 1.6477364848018 3.3474748832278 1.3822775923541 1.094636762092 1.1103255672433 2.4166254488815 3.760431894794 3.7877165438568 2.3007168668888 11.400206411824 21.437025923355 0 0.69117943877989 0 0 0 1.0286567531852 0 0 1.1326046690666 1.1046190128703 0 0 0 1.0183008149596 0.66786172410429 0.94235214887967 2.4959579077279 2.3718281893767 19.509041117173 1.4000796019012 6.0799318818139 3.0337629039206 8.3704558448782 1.2458312589769 0 0 41.614518328516 7.7699695462761 0 2.9328967441846 0.40958069537206 6.7902534080765 5.5312427705427 0 2.1282090572327 3.8354423141535 5.2010353497189 1.608298761714 0 0 0 4.0388170789875 3.1026289928356 2.2977296516561 1.9040589257992 0 9.6144887884515 0 7.1976299478995 6.4637773448928 6.8376904714034 0 4.8191787522622 3.6995526251914 0 4.6325665264482 1.0612189783796 9.9906841493221 5.268364357298 2.1120810362653 5.1634494546977 8.7292923176107 1.8207730082997 0 2.5506610614836 12.449302142094 1.9471207088653 1.2085065113235 1.1147586050127 3.437607843163 1.9286960728873 0 0 1.7716068844961 0.70765247665255 1.1282753079425 3.4609038766974 3.7388861654922 2.512346006596 2.5486495100715 0.65492716318191 8.3279151069733 8.6489620111927 3.4448647506562 3.8900899149621 0 2.0831207013151 20.386647960424 1.7538786651523 7.4369111775306 1.0192244055882 8.0640275958106 2.8049108471483 4.1204660259592 20.120429472774 5.2370290394956 12.811103911593 2.5638758705238 5.9438771517286 2.4483495251547 3.7639853821038 3.1950725337794 1.8404927289186 0 0.92328165840648 0 2.4546366978712 12.649639318617 10.188263836263 0.97592384545132 9.1543996154809 1.3695108946571 3.2832844598036 0 20.343847324128 12.510128616077 1.1538421948732 9.3222595341088 45.949845618346 10.193270735483 4.3220649658587 0 6.3453478779366 31.718168189772 9.2121770792949 0 3.509341708352 6.7941098245055 0 0 1.5804509210791 53.326659379766 6.9101443042339 22.635046854967 14.512910383814 26.625926524834 0 37.98113722424 7.6473351660971 15.358458482282 1.4235683611182 0 0.7249670081925 0.82581134605185 1.901456218857 6.6081208021503 3.6122557071786 6.7714162945723 5.4424158443976 0.52788058974675 0 11.627969977285 8.459753621301 1.3071713900696 4.8798154667026 8.0697012888643 9.9574473347486 2.9173215145013 12.446266961803 4.4409973878854 3.5844769211517 0 0 4.5956037008074 15.509163426771 9.3832650260765 1.2374224210986 8.2527096147645 7.5128765610761 2.6563348669545 1.7204832778731 22.344433780762 6.8938070107519 15.30026581481 4.9375678601661 3.2502751182697 1.4891037049255 25.647619844827 22.026938417958 14.559180435793 14.021984101473 4.6636264294162 11.928989300736 28.262080606804 0 0.32259116054258 33.136427736164 1.9212685219527 1.0361252906315 9.1062070244344 40.304102958348 0 25.151843889269 0 0 7.6435102995092 1.6755644159843 10.413649787303 16.827278673357 9.2669674608262 7.7827625437372 24.665546531876 0 8.3445811346062 14.014930002566 0 0 2.082736582351 11.113635013057 40.146402738101 11.57817381304 23.761899597042 13.702733474533 4.5304264793262 6.3381441495983 1.5504125251 19.741538327752 1.9515493753301 8.323182704736 19.318695635026 22.274865939748 10.261429667747 23.55664826743 9.6828241153131 10.872318023941 11.312460045299 9.7278790001687 20.725388968341 5.6084678154463 12.064629204152 21.382934882718 0 20.342710310437 13.301695152928 2.6802986949692 9.2639406487029 18.216373417056 22.408820857683 0 0 8.2476483551535 31.9350586658 51.214931689075 10.946114051936 11.234842067049 9.4906140529614 8.837509814513 37.545232645772 23.239936281678 0 15.837618883649 34.044196022269 1.7929910326468 61.689122554395 7.7619087866564 15.991037823165 14.646220089248 19.130150075534 9.9731161938076 7.4128722660288 17.791856079708 78.943293974692 18.077036385409 16.307082198651 16.388939353406 17.720048541608 66.197482372431 4.2371803940222 13.440186905059 23.901673764744 0 0 19.153983408586 9.4657087481595 9.041952004004 0 13.684571694385 2.6120957386875 8.7553366794912 7.9673372211807 7.1781697966145 8.0079168204617 2.5272875549514 0 0 6.2452042266138 8.9262219884655 16.919177898701 43.631547168386 54.313246167905 20.542104760072 18.078545101927 5.2603194281587 23.371057633269 12.895003661141 33.272513721609 31.191740644012 19.263316402407 64.141533655114 29.363633996272 7.3832488392203 5.6267764972915 39.381492333283 6.374762098747 33.788923880424 17.084156809605 45.189676989611 0 27.557400926732 15.983794876288 39.30970140518 39.300833145324 0 71.753023770784 6.1481921026606 43.782281179597 6.409915255202 124.19129372224 0 32.981095730328 0 0 47.951384628874 43.512625823656 6.8801524979953 42.773435560329 43.672934942824 41.001117579315 35.184210196457 50.030087337491 0 40.223705815796 0 0 0 0 25.747400225119 17.349108315794 13.816586999903 0 0 0 0 0 23.346129501381 20.232980297974 0 0 0 44.861855011718 12.933207215868 0 8.4976424282549 41.361724346169 23.011163457787 6.969643776491 9.1772749772976 0 0 70.591042038984 57.729135106259 37.414596808752 4.9133799628399 0 25.396160300285 51.804480256373 22.246980166496 0 30.260703908912 31.799646553725 0 0 23.4668622411 0 0 0 12.68380482425 0 0 0 0 0 0 11.734953237023 3.1599488612749 0 6.7963281899787 3.1239623106562 0 0 12.658570482297 39.939921485203 12.669633009119 51.672555581035 14.020265084309 29.585453527877 25.486901193234 3.6292902510341 18.123978886915 12.892356717298 7.8813680572059 9.968336686769 0 30.747878252252 35.246697780866 0 43.606317569849 0 0 5.1593599910602 0 12.071658786919 34.79794844738 12.399905228845 0 0 0 8.1236824317374 23.082731900468 0 7.9686188360252 0 0 7.8729178204577 17.853247972695 25.439100379229 0 0 3.2054802048842 12.206740218655 6.5783715744779 15.44194484873 14.580336780036 16.892693764004 0 0 0 0 0 0 0 0 0 0 0 0 0 0 0 0 0 0 9.4341345694477 0 0 0 0 0 2.9235260634962 0 0 44.078561693835 0 0 0 0 0 0 0 0 0 0 0 0 1.7470573570781 24.24650599412 0 5.7669487878443 0 5.0130610014603 14.458650066848 0 9.3161797291034 28.82614041876 29.699115186428 16.034770794031 15.840926918188 19.410364914746 17.345042494776 19.467335512984 3.1576042134812 11.4440141178 20.17577492761 3.8375931725795 0 10.488180406825 0 0 4.3936952253914 3.8974640569364 22.37307881469 0 2.6500252680035 0 12.483327164399 0 0 0 0 55.609312953942 0 11.953571676998 4.4888096143105 1.263557792342 0 0 7.0515196602264 9.3664476096091 25.357471542619 58.321252563762 41.110412514543 0 0 68.108566751501 12.959236023587 21.235051578582 0 20.19739041291 0 44.308722328924 19.508495287787 21.485692305663 14.064292347108 0 0 16.6534272339 71.104656850216 0 0 25.969155402696 23.248130500153 0 17.834379212213 0 0 0 9.9083699783048 8.4688588047115 12.076459241205 20.766679212799 18.404263863584 22.887928276989 29.986938939465 15.694580077689 36.267798324314 0 0 0 20.854649034039 30.433233517178 0 0 0 0 43.803891639331 0 0 14.389808261115 21.068657667028 38.070840161191 0 0 9.4137549621313 25.901654870008 25.199268318358 0 2.7915995017276 45.878724097381 0 0 28.107444318811 0 31.803405849602 31.402902936004 16.299004344906 8.4433684135219 7.8878663031976 36.552201205081 16.662561436968 15.940539245052 20.108317689466 20.389035889305 29.130490120901 51.106055329334 0 30.287924203694 0 0 0 34.990053349932 0 0 0 0 0 0 0 0 0 33.623859651338 0 15.631077103228 14.074677688095 0 0 0 0 0 0 0 0 0 0 0 0 0 0 0 0 0 4.3683259748527 0 7.3320326695351 35.049470492634 9.5834723300931 25.883845841392 0 0 0 0 0 0 0 0 0 0 0 0 0 0 0 0 0 0 0 0 0 0 0 0 75.481725083613 0 0.98366282628761 55.609312953942 13.207835066557 99.421815969963 0 6.2513677302555 0 0 0 0 1.9064750484147 11.090352228909 0 0 0 0 0 0 0 0 0 0 0 0 0 0 0 0 0 0 0 0 0 0 0 0 0 0 0 0 27.888434819223 0 0 0 26.247938653386 0 25.952314488114 0 0 0 0 0 0 0 0 10.127478051175 3.335473951878 27.57433414362 0 46.913127083079 5.8052017982905 11.957870089741 50.936625041311 0 0 17.949962124863 0 0 0 0 0 0 0 7.1698755086413 0 0 0 0 0 0 0 0 0 0 0 0 0 0 0 0 0 0 0 0 0 0 0 0 0 0 0 0 0 0 0 0 0 0 0 0 0 0 0 0 0 0 0 0 44.461156186418 0 0 0 0 0 0 0 0 0 0 0 0 100.41416541013 0 0 0 0 0 0 0 0 15.731091737058 0 0 0 
SCALARS Marker double 1
LOOKUP_TABLE default
0 1 2 3 4 5 6 7 8 9 10 11 12 13 14 15 16 17 18 19 20 21 22 23 24 25 26 27 28 29 30 31 32 33 34 35 36 37 38 39 40 41 42 43 44 45 46 47 48 49 50 51 52 53 54 55 56 57 58 59 60 61 62 63 64 65 66 67 68 69 70 71 72 73 74 75 76 77 78 79 80 81 82 83 84 85 86 87 88 89 90 91 92 93 94 95 96 97 98 99 100 101 102 103 104 105 106 107 108 109 110 111 112 113 114 115 116 117 118 119 120 121 122 123 124 125 126 127 128 129 130 131 132 133 134 135 136 137 138 139 140 141 142 143 144 145 146 147 148 149 150 151 152 153 154 155 156 157 158 159 160 161 162 163 164 165 166 167 168 169 170 171 172 173 174 175 176 177 178 179 180 181 182 183 184 185 186 187 188 189 190 191 192 193 194 195 196 197 198 199 200 201 202 203 204 205 206 207 208 209 210 211 212 213 214 215 216 217 218 219 220 221 222 223 224 225 226 227 228 229 230 231 232 233 234 235 236 237 238 239 240 241 242 243 244 245 246 247 248 249 250 251 252 253 254 255 256 257 258 259 260 261 262 263 264 265 266 267 268 269 270 271 272 273 274 275 276 277 278 279 280 281 282 283 284 285 286 287 288 289 290 291 292 293 294 295 296 297 298 299 300 301 302 303 304 305 306 307 308 309 310 311 312 313 314 315 316 317 318 319 320 321 322 323 324 325 326 327 328 329 330 331 332 333 334 335 336 337 338 339 340 341 342 343 344 345 346 347 348 349 350 351 352 353 354 355 356 357 358 359 360 361 362 363 364 365 366 367 368 369 370 371 372 373 374 375 376 377 378 379 380 381 382 383 384 385 386 387 388 389 390 391 392 393 394 395 396 397 398 399 400 401 402 403 404 405 406 407 408 409 410 411 412 413 414 415 416 417 418 419 420 421 422 423 424 425 426 427 428 429 430 431 432 433 434 435 436 437 438 439 440 441 442 443 444 445 446 447 448 449 450 451 452 453 454 455 456 457 458 459 460 461 462 463 464 465 466 467 468 469 470 471 472 473 474 475 476 477 478 479 480 481 482 483 484 485 486 487 488 489 490 491 492 493 494 495 496 497 498 499 500 501 502 503 504 505 506 507 508 509 510 511 512 513 514 515 516 517 518 519 520 521 522 523 524 525 526 527 528 529 530 531 532 533 534 535 536 537 538 539 540 541 542 543 544 545 546 547 548 549 550 551 552 553 554 555 556 557 558 559 560 561 562 563 564 565 566 567 568 569 570 571 572 573 574 575 576 577 578 579 580 581 582 583 584 585 586 587 588 589 590 591 592 593 594 595 596 597 598 599 600 601 602 603 604 605 606 607 608 609 610 611 612 613 614 615 616 617 618 619 620 621 622 623 624 625 626 627 628 629 630 631 632 633 634 635 636 637 638 639 640 641 642 643 644 645 646 647 648 649 650 651 652 653 654 655 656 657 658 659 660 661 662 663 664 665 666 667 668 669 670 671 672 673 674 675 676 677 678 679 680 681 682 683 684 685 686 687 688 689 690 691 692 693 694 695 696 697 698 699 700 701 702 703 704 705 706 707 708 709 710 711 712 713 714 715 716 717 718 719 720 721 722 723 724 725 726 727 728 729 730 731 732 733 734 735 736 737 738 739 740 741 742 743 744 745 746 747 748 749 750 751 752 753 754 755 756 757 758 759 760 761 762 763 764 765 766 767 768 769 770 771 772 773 774 775 776 777 778 779 780 781 782 783 784 785 786 787 788 789 790 791 792 793 794 795 796 797 798 799 800 801 802 803 804 805 806 807 808 809 810 811 812 813 814 815 816 817 818 819 820 821 822 823 824 825 826 827 828 829 830 831 832 833 834 835 836 837 838 839 840 841 842 843 844 845 846 847 848 849 850 851 852 853 854 855 856 857 858 859 860 861 862 863 864 865 866 867 868 869 870 871 872 873 874 875 876 877 878 879 880 881 882 883 884 885 886 887 888 889 890 891 892 893 894 895 896 897 898 899 900 901 902 903 904 905 906 907 908 909 910 911 912 913 914 915 916 917 918 919 920 921 922 923 924 925 926 927 928 929 930 931 932 933 934 935 936 937 938 939 940 941 942 943 944 945 946 947 948 949 950 951 952 953 954 955 956 957 958 959 960 961 962 963 964 965 966 967 968 969 970 971 972 973 974 975 976 977 978 979 980 981 982 983 984 985 986 987 988 989 990 991 992 993 994 995 996 997 998 999 1000 1001 1002 1003 1004 1005 1006 1007 1008 1009 1010 1011 1012 1013 1014 1015 1016 1017 1018 1019 1020 1021 1022 1023 1024 1025 1026 1027 1028 1029 1030 1031 1032 1033 1034 1035 1036 1037 1038 1039 1040 1041 1042 1043 1044 1045 1046 1047 1048 1049 1050 1051 1052 1053 1054 1055 1056 1057 1058 1059 1060 1061 1062 1063 1064 1065 1066 1067 1068 1069 1070 1071 1072 1073 1074 1075 1076 1077 1078 1079 1080 1081 1082 1083 1084 1085 1086 1087 1088 1089 1090 1091 1092 1093 1094 1095 1096 1097 1098 1099 1100 1101 1102 1103 1104 1105 1106 1107 1108 1109 1110 1111 1112 1113 
SCALARS S_Coverage double 1
LOOKUP_TABLE default
1 1 1 1 1 0 1 0 1 1 1 0 0 1 1 1 1 0 1 1 1 1 1 1 1 1 1 0 1 0 0 1 0 0 1 1 1 1 1 0 1 1 1 1 1 1 1 0 1 1 0 1 0 1 1 1 0 1 1 1 1 1 1 0 1 1 1 1 0 1 1 1 1 1 1 1 1 1 1 1 1 1 1 1 1 1 1 1 1 1 1 1 1 1 1 0 1 0 1 1 1 1 1 1 1 1 1 0 1 0 1 1 0 1 1 1 1 1 1 0 1 1 0 1 1 1 1 1 1 1 1 1 0 1 1 1 1 0 0 1 1 1 1 1 1 1 0 1 1 1 1 1 1 1 1 1 1 1 1 1 1 1 1 1 1 1 1 1 1 1 1 1 1 0 1 1 1 1 0 1 1 1 1 1 1 1 1 1 1 1 1 1 1 1 1 1 1 1 1 1 1 1 1 1 1 1 1 1 1 1 1 1 1 1 1 1 1 1 1 1 1 1 1 1 1 1 1 1 1 1 1 1 1 1 1 1 1 1 1 1 1 1 1 1 1 1 1 1 1 1 1 1 1 1 1 1 1 1 1 1 1 1 1 1 1 1 1 1 1 1 1 1 1 1 1 1 1 1 1 1 1 1 1 1 1 1 1 1 1 1 1 1 0 1 1 1 1 1 1 1 1 1 1 1 1 1 1 1 1 1 0 1 1 1 1 1 1 1 1 1 1 1 1 1 1 1 1 1 1 1 1 1 1 1 1 1 1 1 1 1 1 1 1 1 1 1 0 1 0 1 1 1 1 1 1 1 1 1 1 1 1 1 1 1 1 1 1 1 1 1 1 1 1 1 1 1 1 1 1 1 1 1 1 1 1 1 1 1 1 1 1 1 1 0 1 1 1 1 1 1 1 1 1 1 1 1 1 1 1 1 1 1 1 1 1 1 1 1 1 1 1 1 1 1 1 1 1 1 1 0 1 1 1 1 1 1 1 1 1 1 1 1 1 1 1 1 1 1 1 1 1 1 1 1 1 1 1 1 1 1 1 1 1 1 1 1 1 1 1 0 1 1 1 1 1 1 1 1 1 1 1 1 1 1 1 1 1 1 1 1 1 1 0 1 1 1 1 1 1 1 1 0 1 1 1 1 1 1 1 1 1 1 1 0 1 1 1 1 1 1 1 1 1 1 1 1 1 1 1 1 1 1 1 1 1 1 1 1 1 1 1 1 1 1 1 1 0 1 1 1 1 1 1 1 1 1 1 0 1 1 1 1 1 1 1 1 1 1 1 1 1 1 1 1 1 1 1 1 0 0 1 1 1 1 1 1 1 1 1 1 1 0 0 1 1 1 1 1 1 1 1 1 1 1 1 1 1 1 1 1 1 1 1 1 1 1 1 1 1 1 1 1 1 1 1 1 1 1 1 0 1 1 1 1 1 1 1 1 0 1 0 0 0 0 1 1 1 0 0 0 1 1 1 1 0 0 0 1 1 0 1 1 1 1 1 1 0 1 1 1 1 0 1 1 1 1 1 1 0 1 1 0 1 0 1 0 0 0 0 0 0 1 1 0 1 1 1 0 1 1 1 1 1 1 1 1 1 1 1 1 0 1 1 1 1 1 1 1 0 1 1 1 1 1 0 1 1 0 1 1 1 1 1 1 1 0 1 1 1 1 1 1 0 0 0 0 0 0 0 0 0 0 0 0 0 0 0 0 0 1 1 0 0 0 0 0 1 0 1 1 0 1 0 0 0 0 0 0 0 0 0 1 1 1 0 1 0 1 1 0 1 1 1 1 1 1 1 1 1 1 1 1 1 1 1 0 1 1 1 1 1 0 1 1 1 1 1 1 1 1 1 1 0 0 1 1 1 1 1 1 0 1 1 1 0 1 1 1 1 1 1 1 1 1 1 0 0 1 1 0 1 0 0 0 1 1 1 1 1 1 1 1 1 1 1 0 1 1 1 0 0 0 1 0 1 1 1 1 0 0 1 1 1 0 1 1 1 0 1 1 1 1 1 1 1 1 1 1 1 1 1 1 1 1 0 0 0 1 1 0 0 0 0 1 0 0 1 1 0 1 1 0 0 0 0 0 0 0 1 0 0 0 0 0 0 0 0 0 1 0 1 1 1 1 0 0 0 0 0 0 0 0 0 0 0 0 1 1 0 0 0 0 0 0 0 0 0 0 1 0 1 1 1 1 0 1 1 1 0 0 1 1 0 0 0 0 0 0 0 0 0 0 0 0 0 0 0 0 0 0 0 0 0 0 0 0 0 0 0 0 1 0 0 0 1 0 1 1 0 0 0 0 0 0 0 1 1 1 0 1 1 1 1 1 0 1 0 0 0 0 0 0 0 1 0 0 0 1 1 0 1 1 0 0 0 0 0 0 0 0 0 0 0 0 0 0 0 0 0 0 0 0 0 0 0 0 0 0 0 0 0 0 0 0 0 0 1 0 1 0 0 0 0 1 0 0 0 0 0 0 0 1 0 0 0 0 0 0 1 0 1 0 0 0 
SCALARS Velocity double 1
LOOKUP_TABLE default